+ 0 /NodeList/1/DeviceList/0/$ns3::LrWpanNetDevice/Mac/MacTxEnqueue ns3::LrWpanMacHeader (  Frame Type = 1, Sec Enable = 0, Frame Pending = 0, Ack Request = 0, PAN ID Compress = 0, Frame Vers = 1, Dst Addrs Mode = 2, Src Addr Mode = 2, Sequence Num = 172, Dst Addr Pan ID = 0, m_addrShortDstAddr = 80:02, Src Addr Pan ID = 0, m_addrShortSrcAddr = 00:02) ns3::SixLowPanIphc (Compression kind: 31497) ns3::Icmpv6NS (( type = 135 (NS) code = 0 target = 2001:2::ff:fe00:2 checksum = 38488)) ns3::Icmpv6OptionLinkLayerAddress (( type = 1 length = 1 L2 Address = 00-06-02:00:00:00:00:02)) ns3::LrWpanMacTrailer ( FCS = 0)
+ 0 /NodeList/3/DeviceList/0/$ns3::LrWpanNetDevice/Mac/MacTxEnqueue ns3::LrWpanMacHeader (  Frame Type = 1, Sec Enable = 0, Frame Pending = 0, Ack Request = 0, PAN ID Compress = 0, Frame Vers = 1, Dst Addrs Mode = 2, Src Addr Mode = 2, Sequence Num = 120, Dst Addr Pan ID = 0, m_addrShortDstAddr = 80:04, Src Addr Pan ID = 0, m_addrShortSrcAddr = 00:04) ns3::SixLowPanIphc (Compression kind: 31497) ns3::Icmpv6NS (( type = 135 (NS) code = 0 target = fe80::ff:fe00:4 checksum = 4730)) ns3::Icmpv6OptionLinkLayerAddress (( type = 1 length = 1 L2 Address = 00-06-02:00:00:00:00:04)) ns3::LrWpanMacTrailer ( FCS = 0)
+ 0 /NodeList/3/DeviceList/0/$ns3::LrWpanNetDevice/Mac/MacTxEnqueue ns3::LrWpanMacHeader (  Frame Type = 1, Sec Enable = 0, Frame Pending = 0, Ack Request = 0, PAN ID Compress = 0, Frame Vers = 1, Dst Addrs Mode = 2, Src Addr Mode = 2, Sequence Num = 121, Dst Addr Pan ID = 0, m_addrShortDstAddr = 80:04, Src Addr Pan ID = 0, m_addrShortSrcAddr = 00:04) ns3::SixLowPanIphc (Compression kind: 31497) ns3::Icmpv6NS (( type = 135 (NS) code = 0 target = 2001:2::ff:fe00:4 checksum = 36952)) ns3::Icmpv6OptionLinkLayerAddress (( type = 1 length = 1 L2 Address = 00-06-02:00:00:00:00:04)) ns3::LrWpanMacTrailer ( FCS = 0)
+ 0 /NodeList/5/DeviceList/0/$ns3::LrWpanNetDevice/Mac/MacTxEnqueue ns3::LrWpanMacHeader (  Frame Type = 1, Sec Enable = 0, Frame Pending = 0, Ack Request = 0, PAN ID Compress = 0, Frame Vers = 1, Dst Addrs Mode = 2, Src Addr Mode = 2, Sequence Num = 226, Dst Addr Pan ID = 0, m_addrShortDstAddr = 80:06, Src Addr Pan ID = 0, m_addrShortSrcAddr = 00:06) ns3::SixLowPanIphc (Compression kind: 31497) ns3::Icmpv6NS (( type = 135 (NS) code = 0 target = 2001:2::ff:fe00:6 checksum = 35416)) ns3::Icmpv6OptionLinkLayerAddress (( type = 1 length = 1 L2 Address = 00-06-02:00:00:00:00:06)) ns3::LrWpanMacTrailer ( FCS = 0)
t +0.000512s /NodeList/5/DeviceList/0/$ns3::LrWpanNetDevice/Mac/MacTx ns3::LrWpanMacHeader (  Frame Type = 1, Sec Enable = 0, Frame Pending = 0, Ack Request = 0, PAN ID Compress = 0, Frame Vers = 1, Dst Addrs Mode = 2, Src Addr Mode = 2, Sequence Num = 226, Dst Addr Pan ID = 0, m_addrShortDstAddr = 80:06, Src Addr Pan ID = 0, m_addrShortSrcAddr = 00:06) ns3::SixLowPanIphc (Compression kind: 31497) ns3::Icmpv6NS (( type = 135 (NS) code = 0 target = 2001:2::ff:fe00:6 checksum = 35416)) ns3::Icmpv6OptionLinkLayerAddress (( type = 1 length = 1 L2 Address = 00-06-02:00:00:00:00:06)) ns3::LrWpanMacTrailer ( FCS = 0)
+ 0.002 /NodeList/1/DeviceList/0/$ns3::LrWpanNetDevice/Mac/MacTxEnqueue ns3::LrWpanMacHeader (  Frame Type = 1, Sec Enable = 0, Frame Pending = 0, Ack Request = 0, PAN ID Compress = 0, Frame Vers = 1, Dst Addrs Mode = 2, Src Addr Mode = 2, Sequence Num = 173, Dst Addr Pan ID = 0, m_addrShortDstAddr = 80:02, Src Addr Pan ID = 0, m_addrShortSrcAddr = 00:02) ns3::SixLowPanIphc (Compression kind: 31497) ns3::Icmpv6NS (( type = 135 (NS) code = 0 target = fe80::ff:fe00:2 checksum = 6266)) ns3::Icmpv6OptionLinkLayerAddress (( type = 1 length = 1 L2 Address = 00-06-02:00:00:00:00:02)) ns3::LrWpanMacTrailer ( FCS = 0)
+ 0.002 /NodeList/6/DeviceList/0/$ns3::LrWpanNetDevice/Mac/MacTxEnqueue ns3::LrWpanMacHeader (  Frame Type = 1, Sec Enable = 0, Frame Pending = 0, Ack Request = 0, PAN ID Compress = 0, Frame Vers = 1, Dst Addrs Mode = 2, Src Addr Mode = 2, Sequence Num = 202, Dst Addr Pan ID = 0, m_addrShortDstAddr = 80:07, Src Addr Pan ID = 0, m_addrShortSrcAddr = 00:07) ns3::SixLowPanIphc (Compression kind: 31497) ns3::Icmpv6NS (( type = 135 (NS) code = 0 target = fe80::ff:fe00:7 checksum = 2426)) ns3::Icmpv6OptionLinkLayerAddress (( type = 1 length = 1 L2 Address = 00-06-02:00:00:00:00:07)) ns3::LrWpanMacTrailer ( FCS = 0)
- 0.002944 /NodeList/5/DeviceList/0/$ns3::LrWpanNetDevice/Mac/MacTxDequeue ns3::LrWpanMacHeader (  Frame Type = 1, Sec Enable = 0, Frame Pending = 0, Ack Request = 0, PAN ID Compress = 0, Frame Vers = 1, Dst Addrs Mode = 2, Src Addr Mode = 2, Sequence Num = 226, Dst Addr Pan ID = 0, m_addrShortDstAddr = 80:06, Src Addr Pan ID = 0, m_addrShortSrcAddr = 00:06) ns3::SixLowPanIphc (Compression kind: 31497) ns3::Icmpv6NS (( type = 135 (NS) code = 0 target = 2001:2::ff:fe00:6 checksum = 35416)) ns3::Icmpv6OptionLinkLayerAddress (( type = 1 length = 1 L2 Address = 00-06-02:00:00:00:00:06)) ns3::LrWpanMacTrailer ( FCS = 0)
r 0.00294402 /NodeList/2/DeviceList/0/$ns3::LrWpanNetDevice/Mac/MacRx ns3::LrWpanMacHeader (  Frame Type = 1, Sec Enable = 0, Frame Pending = 0, Ack Request = 0, PAN ID Compress = 0, Frame Vers = 1, Dst Addrs Mode = 2, Src Addr Mode = 2, Sequence Num = 226, Dst Addr Pan ID = 0, m_addrShortDstAddr = 80:06, Src Addr Pan ID = 0, m_addrShortSrcAddr = 00:06) ns3::SixLowPanIphc (Compression kind: 31497) ns3::Icmpv6NS (( type = 135 (NS) code = 0 target = 2001:2::ff:fe00:6 checksum = 35416)) ns3::Icmpv6OptionLinkLayerAddress (( type = 1 length = 1 L2 Address = 00-06-02:00:00:00:00:06)) ns3::LrWpanMacTrailer ( FCS = 0)
r 0.00294405 /NodeList/3/DeviceList/0/$ns3::LrWpanNetDevice/Mac/MacRx ns3::LrWpanMacHeader (  Frame Type = 1, Sec Enable = 0, Frame Pending = 0, Ack Request = 0, PAN ID Compress = 0, Frame Vers = 1, Dst Addrs Mode = 2, Src Addr Mode = 2, Sequence Num = 226, Dst Addr Pan ID = 0, m_addrShortDstAddr = 80:06, Src Addr Pan ID = 0, m_addrShortSrcAddr = 00:06) ns3::SixLowPanIphc (Compression kind: 31497) ns3::Icmpv6NS (( type = 135 (NS) code = 0 target = 2001:2::ff:fe00:6 checksum = 35416)) ns3::Icmpv6OptionLinkLayerAddress (( type = 1 length = 1 L2 Address = 00-06-02:00:00:00:00:06)) ns3::LrWpanMacTrailer ( FCS = 0)
r 0.00294406 /NodeList/6/DeviceList/0/$ns3::LrWpanNetDevice/Mac/MacRx ns3::LrWpanMacHeader (  Frame Type = 1, Sec Enable = 0, Frame Pending = 0, Ack Request = 0, PAN ID Compress = 0, Frame Vers = 1, Dst Addrs Mode = 2, Src Addr Mode = 2, Sequence Num = 226, Dst Addr Pan ID = 0, m_addrShortDstAddr = 80:06, Src Addr Pan ID = 0, m_addrShortSrcAddr = 00:06) ns3::SixLowPanIphc (Compression kind: 31497) ns3::Icmpv6NS (( type = 135 (NS) code = 0 target = 2001:2::ff:fe00:6 checksum = 35416)) ns3::Icmpv6OptionLinkLayerAddress (( type = 1 length = 1 L2 Address = 00-06-02:00:00:00:00:06)) ns3::LrWpanMacTrailer ( FCS = 0)
r 0.00294407 /NodeList/0/DeviceList/0/$ns3::LrWpanNetDevice/Mac/MacRx ns3::LrWpanMacHeader (  Frame Type = 1, Sec Enable = 0, Frame Pending = 0, Ack Request = 0, PAN ID Compress = 0, Frame Vers = 1, Dst Addrs Mode = 2, Src Addr Mode = 2, Sequence Num = 226, Dst Addr Pan ID = 0, m_addrShortDstAddr = 80:06, Src Addr Pan ID = 0, m_addrShortSrcAddr = 00:06) ns3::SixLowPanIphc (Compression kind: 31497) ns3::Icmpv6NS (( type = 135 (NS) code = 0 target = 2001:2::ff:fe00:6 checksum = 35416)) ns3::Icmpv6OptionLinkLayerAddress (( type = 1 length = 1 L2 Address = 00-06-02:00:00:00:00:06)) ns3::LrWpanMacTrailer ( FCS = 0)
r 0.00294407 /NodeList/1/DeviceList/0/$ns3::LrWpanNetDevice/Mac/MacRx ns3::LrWpanMacHeader (  Frame Type = 1, Sec Enable = 0, Frame Pending = 0, Ack Request = 0, PAN ID Compress = 0, Frame Vers = 1, Dst Addrs Mode = 2, Src Addr Mode = 2, Sequence Num = 226, Dst Addr Pan ID = 0, m_addrShortDstAddr = 80:06, Src Addr Pan ID = 0, m_addrShortSrcAddr = 00:06) ns3::SixLowPanIphc (Compression kind: 31497) ns3::Icmpv6NS (( type = 135 (NS) code = 0 target = 2001:2::ff:fe00:6 checksum = 35416)) ns3::Icmpv6OptionLinkLayerAddress (( type = 1 length = 1 L2 Address = 00-06-02:00:00:00:00:06)) ns3::LrWpanMacTrailer ( FCS = 0)
r 0.00294409 /NodeList/4/DeviceList/0/$ns3::LrWpanNetDevice/Mac/MacRx ns3::LrWpanMacHeader (  Frame Type = 1, Sec Enable = 0, Frame Pending = 0, Ack Request = 0, PAN ID Compress = 0, Frame Vers = 1, Dst Addrs Mode = 2, Src Addr Mode = 2, Sequence Num = 226, Dst Addr Pan ID = 0, m_addrShortDstAddr = 80:06, Src Addr Pan ID = 0, m_addrShortSrcAddr = 00:06) ns3::SixLowPanIphc (Compression kind: 31497) ns3::Icmpv6NS (( type = 135 (NS) code = 0 target = 2001:2::ff:fe00:6 checksum = 35416)) ns3::Icmpv6OptionLinkLayerAddress (( type = 1 length = 1 L2 Address = 00-06-02:00:00:00:00:06)) ns3::LrWpanMacTrailer ( FCS = 0)
+ 0.003 /NodeList/4/DeviceList/0/$ns3::LrWpanNetDevice/Mac/MacTxEnqueue ns3::LrWpanMacHeader (  Frame Type = 1, Sec Enable = 0, Frame Pending = 0, Ack Request = 0, PAN ID Compress = 0, Frame Vers = 1, Dst Addrs Mode = 2, Src Addr Mode = 2, Sequence Num = 63, Dst Addr Pan ID = 0, m_addrShortDstAddr = 80:05, Src Addr Pan ID = 0, m_addrShortSrcAddr = 00:05) ns3::SixLowPanIphc (Compression kind: 31497) ns3::Icmpv6NS (( type = 135 (NS) code = 0 target = fe80::ff:fe00:5 checksum = 3962)) ns3::Icmpv6OptionLinkLayerAddress (( type = 1 length = 1 L2 Address = 00-06-02:00:00:00:00:05)) ns3::LrWpanMacTrailer ( FCS = 0)
+ 0.003 /NodeList/1/DeviceList/0/$ns3::LrWpanNetDevice/Mac/MacTxEnqueue ns3::LrWpanMacHeader (  Frame Type = 1, Sec Enable = 0, Frame Pending = 0, Ack Request = 0, PAN ID Compress = 0, Frame Vers = 1, Dst Addrs Mode = 2, Src Addr Mode = 2, Sequence Num = 174, Dst Addr Pan ID = 0, m_addrShortDstAddr = 80:01, Src Addr Pan ID = 0, m_addrShortSrcAddr = 00:02) ns3::SixLowPanIphc (Compression kind: 31497) ns3::Icmpv6NS (( type = 135 (NS) code = 0 target = 2001:2::ff:fe00:1 checksum = 37689)) ns3::Icmpv6OptionLinkLayerAddress (( type = 1 length = 1 L2 Address = 00-06-02:00:00:00:00:02)) ns3::LrWpanMacTrailer ( FCS = 0)
+ 0.004 /NodeList/2/DeviceList/0/$ns3::LrWpanNetDevice/Mac/MacTxEnqueue ns3::LrWpanMacHeader (  Frame Type = 1, Sec Enable = 0, Frame Pending = 0, Ack Request = 0, PAN ID Compress = 0, Frame Vers = 1, Dst Addrs Mode = 2, Src Addr Mode = 2, Sequence Num = 143, Dst Addr Pan ID = 0, m_addrShortDstAddr = 80:03, Src Addr Pan ID = 0, m_addrShortSrcAddr = 00:03) ns3::SixLowPanIphc (Compression kind: 31497) ns3::Icmpv6NS (( type = 135 (NS) code = 0 target = 2001:2::ff:fe00:3 checksum = 37720)) ns3::Icmpv6OptionLinkLayerAddress (( type = 1 length = 1 L2 Address = 00-06-02:00:00:00:00:03)) ns3::LrWpanMacTrailer ( FCS = 0)
t +0.00424s /NodeList/6/DeviceList/0/$ns3::LrWpanNetDevice/Mac/MacTx ns3::LrWpanMacHeader (  Frame Type = 1, Sec Enable = 0, Frame Pending = 0, Ack Request = 0, PAN ID Compress = 0, Frame Vers = 1, Dst Addrs Mode = 2, Src Addr Mode = 2, Sequence Num = 202, Dst Addr Pan ID = 0, m_addrShortDstAddr = 80:07, Src Addr Pan ID = 0, m_addrShortSrcAddr = 00:07) ns3::SixLowPanIphc (Compression kind: 31497) ns3::Icmpv6NS (( type = 135 (NS) code = 0 target = fe80::ff:fe00:7 checksum = 2426)) ns3::Icmpv6OptionLinkLayerAddress (( type = 1 length = 1 L2 Address = 00-06-02:00:00:00:00:07)) ns3::LrWpanMacTrailer ( FCS = 0)
+ 0.005 /NodeList/4/DeviceList/0/$ns3::LrWpanNetDevice/Mac/MacTxEnqueue ns3::LrWpanMacHeader (  Frame Type = 1, Sec Enable = 0, Frame Pending = 0, Ack Request = 0, PAN ID Compress = 0, Frame Vers = 1, Dst Addrs Mode = 2, Src Addr Mode = 2, Sequence Num = 64, Dst Addr Pan ID = 0, m_addrShortDstAddr = 80:05, Src Addr Pan ID = 0, m_addrShortSrcAddr = 00:05) ns3::SixLowPanIphc (Compression kind: 31497) ns3::Icmpv6NS (( type = 135 (NS) code = 0 target = 2001:2::ff:fe00:5 checksum = 36184)) ns3::Icmpv6OptionLinkLayerAddress (( type = 1 length = 1 L2 Address = 00-06-02:00:00:00:00:05)) ns3::LrWpanMacTrailer ( FCS = 0)
- 0.006672 /NodeList/6/DeviceList/0/$ns3::LrWpanNetDevice/Mac/MacTxDequeue ns3::LrWpanMacHeader (  Frame Type = 1, Sec Enable = 0, Frame Pending = 0, Ack Request = 0, PAN ID Compress = 0, Frame Vers = 1, Dst Addrs Mode = 2, Src Addr Mode = 2, Sequence Num = 202, Dst Addr Pan ID = 0, m_addrShortDstAddr = 80:07, Src Addr Pan ID = 0, m_addrShortSrcAddr = 00:07) ns3::SixLowPanIphc (Compression kind: 31497) ns3::Icmpv6NS (( type = 135 (NS) code = 0 target = fe80::ff:fe00:7 checksum = 2426)) ns3::Icmpv6OptionLinkLayerAddress (( type = 1 length = 1 L2 Address = 00-06-02:00:00:00:00:07)) ns3::LrWpanMacTrailer ( FCS = 0)
r 0.00667201 /NodeList/0/DeviceList/0/$ns3::LrWpanNetDevice/Mac/MacRx ns3::LrWpanMacHeader (  Frame Type = 1, Sec Enable = 0, Frame Pending = 0, Ack Request = 0, PAN ID Compress = 0, Frame Vers = 1, Dst Addrs Mode = 2, Src Addr Mode = 2, Sequence Num = 202, Dst Addr Pan ID = 0, m_addrShortDstAddr = 80:07, Src Addr Pan ID = 0, m_addrShortSrcAddr = 00:07) ns3::SixLowPanIphc (Compression kind: 31497) ns3::Icmpv6NS (( type = 135 (NS) code = 0 target = fe80::ff:fe00:7 checksum = 2426)) ns3::Icmpv6OptionLinkLayerAddress (( type = 1 length = 1 L2 Address = 00-06-02:00:00:00:00:07)) ns3::LrWpanMacTrailer ( FCS = 0)
r 0.00667201 /NodeList/1/DeviceList/0/$ns3::LrWpanNetDevice/Mac/MacRx ns3::LrWpanMacHeader (  Frame Type = 1, Sec Enable = 0, Frame Pending = 0, Ack Request = 0, PAN ID Compress = 0, Frame Vers = 1, Dst Addrs Mode = 2, Src Addr Mode = 2, Sequence Num = 202, Dst Addr Pan ID = 0, m_addrShortDstAddr = 80:07, Src Addr Pan ID = 0, m_addrShortSrcAddr = 00:07) ns3::SixLowPanIphc (Compression kind: 31497) ns3::Icmpv6NS (( type = 135 (NS) code = 0 target = fe80::ff:fe00:7 checksum = 2426)) ns3::Icmpv6OptionLinkLayerAddress (( type = 1 length = 1 L2 Address = 00-06-02:00:00:00:00:07)) ns3::LrWpanMacTrailer ( FCS = 0)
r 0.00667201 /NodeList/3/DeviceList/0/$ns3::LrWpanNetDevice/Mac/MacRx ns3::LrWpanMacHeader (  Frame Type = 1, Sec Enable = 0, Frame Pending = 0, Ack Request = 0, PAN ID Compress = 0, Frame Vers = 1, Dst Addrs Mode = 2, Src Addr Mode = 2, Sequence Num = 202, Dst Addr Pan ID = 0, m_addrShortDstAddr = 80:07, Src Addr Pan ID = 0, m_addrShortSrcAddr = 00:07) ns3::SixLowPanIphc (Compression kind: 31497) ns3::Icmpv6NS (( type = 135 (NS) code = 0 target = fe80::ff:fe00:7 checksum = 2426)) ns3::Icmpv6OptionLinkLayerAddress (( type = 1 length = 1 L2 Address = 00-06-02:00:00:00:00:07)) ns3::LrWpanMacTrailer ( FCS = 0)
r 0.00667203 /NodeList/2/DeviceList/0/$ns3::LrWpanNetDevice/Mac/MacRx ns3::LrWpanMacHeader (  Frame Type = 1, Sec Enable = 0, Frame Pending = 0, Ack Request = 0, PAN ID Compress = 0, Frame Vers = 1, Dst Addrs Mode = 2, Src Addr Mode = 2, Sequence Num = 202, Dst Addr Pan ID = 0, m_addrShortDstAddr = 80:07, Src Addr Pan ID = 0, m_addrShortSrcAddr = 00:07) ns3::SixLowPanIphc (Compression kind: 31497) ns3::Icmpv6NS (( type = 135 (NS) code = 0 target = fe80::ff:fe00:7 checksum = 2426)) ns3::Icmpv6OptionLinkLayerAddress (( type = 1 length = 1 L2 Address = 00-06-02:00:00:00:00:07)) ns3::LrWpanMacTrailer ( FCS = 0)
r 0.00667205 /NodeList/5/DeviceList/0/$ns3::LrWpanNetDevice/Mac/MacRx ns3::LrWpanMacHeader (  Frame Type = 1, Sec Enable = 0, Frame Pending = 0, Ack Request = 0, PAN ID Compress = 0, Frame Vers = 1, Dst Addrs Mode = 2, Src Addr Mode = 2, Sequence Num = 202, Dst Addr Pan ID = 0, m_addrShortDstAddr = 80:07, Src Addr Pan ID = 0, m_addrShortSrcAddr = 00:07) ns3::SixLowPanIphc (Compression kind: 31497) ns3::Icmpv6NS (( type = 135 (NS) code = 0 target = fe80::ff:fe00:7 checksum = 2426)) ns3::Icmpv6OptionLinkLayerAddress (( type = 1 length = 1 L2 Address = 00-06-02:00:00:00:00:07)) ns3::LrWpanMacTrailer ( FCS = 0)
r 0.00667207 /NodeList/4/DeviceList/0/$ns3::LrWpanNetDevice/Mac/MacRx ns3::LrWpanMacHeader (  Frame Type = 1, Sec Enable = 0, Frame Pending = 0, Ack Request = 0, PAN ID Compress = 0, Frame Vers = 1, Dst Addrs Mode = 2, Src Addr Mode = 2, Sequence Num = 202, Dst Addr Pan ID = 0, m_addrShortDstAddr = 80:07, Src Addr Pan ID = 0, m_addrShortSrcAddr = 00:07) ns3::SixLowPanIphc (Compression kind: 31497) ns3::Icmpv6NS (( type = 135 (NS) code = 0 target = fe80::ff:fe00:7 checksum = 2426)) ns3::Icmpv6OptionLinkLayerAddress (( type = 1 length = 1 L2 Address = 00-06-02:00:00:00:00:07)) ns3::LrWpanMacTrailer ( FCS = 0)
+ 0.007 /NodeList/2/DeviceList/0/$ns3::LrWpanNetDevice/Mac/MacTxEnqueue ns3::LrWpanMacHeader (  Frame Type = 1, Sec Enable = 0, Frame Pending = 0, Ack Request = 0, PAN ID Compress = 0, Frame Vers = 1, Dst Addrs Mode = 2, Src Addr Mode = 2, Sequence Num = 144, Dst Addr Pan ID = 0, m_addrShortDstAddr = 80:03, Src Addr Pan ID = 0, m_addrShortSrcAddr = 00:03) ns3::SixLowPanIphc (Compression kind: 31497) ns3::Icmpv6NS (( type = 135 (NS) code = 0 target = fe80::ff:fe00:3 checksum = 5498)) ns3::Icmpv6OptionLinkLayerAddress (( type = 1 length = 1 L2 Address = 00-06-02:00:00:00:00:03)) ns3::LrWpanMacTrailer ( FCS = 0)
+ 0.008 /NodeList/5/DeviceList/0/$ns3::LrWpanNetDevice/Mac/MacTxEnqueue ns3::LrWpanMacHeader (  Frame Type = 1, Sec Enable = 0, Frame Pending = 0, Ack Request = 0, PAN ID Compress = 0, Frame Vers = 1, Dst Addrs Mode = 2, Src Addr Mode = 2, Sequence Num = 227, Dst Addr Pan ID = 0, m_addrShortDstAddr = 80:06, Src Addr Pan ID = 0, m_addrShortSrcAddr = 00:06) ns3::SixLowPanIphc (Compression kind: 31497) ns3::Icmpv6NS (( type = 135 (NS) code = 0 target = fe80::ff:fe00:6 checksum = 3194)) ns3::Icmpv6OptionLinkLayerAddress (( type = 1 length = 1 L2 Address = 00-06-02:00:00:00:00:06)) ns3::LrWpanMacTrailer ( FCS = 0)
+ 0.008 /NodeList/6/DeviceList/0/$ns3::LrWpanNetDevice/Mac/MacTxEnqueue ns3::LrWpanMacHeader (  Frame Type = 1, Sec Enable = 0, Frame Pending = 0, Ack Request = 0, PAN ID Compress = 0, Frame Vers = 1, Dst Addrs Mode = 2, Src Addr Mode = 2, Sequence Num = 203, Dst Addr Pan ID = 0, m_addrShortDstAddr = 80:07, Src Addr Pan ID = 0, m_addrShortSrcAddr = 00:07) ns3::SixLowPanIphc (Compression kind: 31497) ns3::Icmpv6NS (( type = 135 (NS) code = 0 target = 2001:2::ff:fe00:7 checksum = 34648)) ns3::Icmpv6OptionLinkLayerAddress (( type = 1 length = 1 L2 Address = 00-06-02:00:00:00:00:07)) ns3::LrWpanMacTrailer ( FCS = 0)
+ 0.009 /NodeList/0/DeviceList/0/$ns3::LrWpanNetDevice/Mac/MacTxEnqueue ns3::LrWpanMacHeader (  Frame Type = 1, Sec Enable = 0, Frame Pending = 0, Ack Request = 0, PAN ID Compress = 0, Frame Vers = 1, Dst Addrs Mode = 2, Src Addr Mode = 2, Sequence Num = 76, Dst Addr Pan ID = 0, m_addrShortDstAddr = 80:01, Src Addr Pan ID = 0, m_addrShortSrcAddr = 00:01) ns3::SixLowPanIphc (Compression kind: 31497) ns3::Icmpv6NS (( type = 135 (NS) code = 0 target = fe80::ff:fe00:1 checksum = 7034)) ns3::Icmpv6OptionLinkLayerAddress (( type = 1 length = 1 L2 Address = 00-06-02:00:00:00:00:01)) ns3::LrWpanMacTrailer ( FCS = 0)
+ 0.009 /NodeList/0/DeviceList/0/$ns3::LrWpanNetDevice/Mac/MacTxEnqueue ns3::LrWpanMacHeader (  Frame Type = 1, Sec Enable = 0, Frame Pending = 0, Ack Request = 0, PAN ID Compress = 0, Frame Vers = 1, Dst Addrs Mode = 2, Src Addr Mode = 2, Sequence Num = 77, Dst Addr Pan ID = 0, m_addrShortDstAddr = 80:01, Src Addr Pan ID = 0, m_addrShortSrcAddr = 00:01) ns3::SixLowPanIphc (Compression kind: 31497) ns3::Icmpv6NS (( type = 135 (NS) code = 0 target = 2001:2::ff:fe00:1 checksum = 39256)) ns3::Icmpv6OptionLinkLayerAddress (( type = 1 length = 1 L2 Address = 00-06-02:00:00:00:00:01)) ns3::LrWpanMacTrailer ( FCS = 0)
t +0.009568s /NodeList/2/DeviceList/0/$ns3::LrWpanNetDevice/Mac/MacTx ns3::LrWpanMacHeader (  Frame Type = 1, Sec Enable = 0, Frame Pending = 0, Ack Request = 0, PAN ID Compress = 0, Frame Vers = 1, Dst Addrs Mode = 2, Src Addr Mode = 2, Sequence Num = 143, Dst Addr Pan ID = 0, m_addrShortDstAddr = 80:03, Src Addr Pan ID = 0, m_addrShortSrcAddr = 00:03) ns3::SixLowPanIphc (Compression kind: 31497) ns3::Icmpv6NS (( type = 135 (NS) code = 0 target = 2001:2::ff:fe00:3 checksum = 37720)) ns3::Icmpv6OptionLinkLayerAddress (( type = 1 length = 1 L2 Address = 00-06-02:00:00:00:00:03)) ns3::LrWpanMacTrailer ( FCS = 0)
t +0.0096s /NodeList/6/DeviceList/0/$ns3::LrWpanNetDevice/Mac/MacTx ns3::LrWpanMacHeader (  Frame Type = 1, Sec Enable = 0, Frame Pending = 0, Ack Request = 0, PAN ID Compress = 0, Frame Vers = 1, Dst Addrs Mode = 2, Src Addr Mode = 2, Sequence Num = 203, Dst Addr Pan ID = 0, m_addrShortDstAddr = 80:07, Src Addr Pan ID = 0, m_addrShortSrcAddr = 00:07) ns3::SixLowPanIphc (Compression kind: 31497) ns3::Icmpv6NS (( type = 135 (NS) code = 0 target = 2001:2::ff:fe00:7 checksum = 34648)) ns3::Icmpv6OptionLinkLayerAddress (( type = 1 length = 1 L2 Address = 00-06-02:00:00:00:00:07)) ns3::LrWpanMacTrailer ( FCS = 0)
t +0.009656s /NodeList/4/DeviceList/0/$ns3::LrWpanNetDevice/Mac/MacTx ns3::LrWpanMacHeader (  Frame Type = 1, Sec Enable = 0, Frame Pending = 0, Ack Request = 0, PAN ID Compress = 0, Frame Vers = 1, Dst Addrs Mode = 2, Src Addr Mode = 2, Sequence Num = 63, Dst Addr Pan ID = 0, m_addrShortDstAddr = 80:05, Src Addr Pan ID = 0, m_addrShortSrcAddr = 00:05) ns3::SixLowPanIphc (Compression kind: 31497) ns3::Icmpv6NS (( type = 135 (NS) code = 0 target = fe80::ff:fe00:5 checksum = 3962)) ns3::Icmpv6OptionLinkLayerAddress (( type = 1 length = 1 L2 Address = 00-06-02:00:00:00:00:05)) ns3::LrWpanMacTrailer ( FCS = 0)
- 0.012 /NodeList/2/DeviceList/0/$ns3::LrWpanNetDevice/Mac/MacTxDequeue ns3::LrWpanMacHeader (  Frame Type = 1, Sec Enable = 0, Frame Pending = 0, Ack Request = 0, PAN ID Compress = 0, Frame Vers = 1, Dst Addrs Mode = 2, Src Addr Mode = 2, Sequence Num = 143, Dst Addr Pan ID = 0, m_addrShortDstAddr = 80:03, Src Addr Pan ID = 0, m_addrShortSrcAddr = 00:03) ns3::SixLowPanIphc (Compression kind: 31497) ns3::Icmpv6NS (( type = 135 (NS) code = 0 target = 2001:2::ff:fe00:3 checksum = 37720)) ns3::Icmpv6OptionLinkLayerAddress (( type = 1 length = 1 L2 Address = 00-06-02:00:00:00:00:03)) ns3::LrWpanMacTrailer ( FCS = 0)
r 0.012 /NodeList/5/DeviceList/0/$ns3::LrWpanNetDevice/Mac/MacRx ns3::LrWpanMacHeader (  Frame Type = 1, Sec Enable = 0, Frame Pending = 0, Ack Request = 0, PAN ID Compress = 0, Frame Vers = 1, Dst Addrs Mode = 2, Src Addr Mode = 2, Sequence Num = 143, Dst Addr Pan ID = 0, m_addrShortDstAddr = 80:03, Src Addr Pan ID = 0, m_addrShortSrcAddr = 00:03) ns3::SixLowPanIphc (Compression kind: 31497) ns3::Icmpv6NS (( type = 135 (NS) code = 0 target = 2001:2::ff:fe00:3 checksum = 37720)) ns3::Icmpv6OptionLinkLayerAddress (( type = 1 length = 1 L2 Address = 00-06-02:00:00:00:00:03)) ns3::LrWpanMacTrailer ( FCS = 0)
- 0.012032 /NodeList/6/DeviceList/0/$ns3::LrWpanNetDevice/Mac/MacTxDequeue ns3::LrWpanMacHeader (  Frame Type = 1, Sec Enable = 0, Frame Pending = 0, Ack Request = 0, PAN ID Compress = 0, Frame Vers = 1, Dst Addrs Mode = 2, Src Addr Mode = 2, Sequence Num = 203, Dst Addr Pan ID = 0, m_addrShortDstAddr = 80:07, Src Addr Pan ID = 0, m_addrShortSrcAddr = 00:07) ns3::SixLowPanIphc (Compression kind: 31497) ns3::Icmpv6NS (( type = 135 (NS) code = 0 target = 2001:2::ff:fe00:7 checksum = 34648)) ns3::Icmpv6OptionLinkLayerAddress (( type = 1 length = 1 L2 Address = 00-06-02:00:00:00:00:07)) ns3::LrWpanMacTrailer ( FCS = 0)
- 0.012088 /NodeList/4/DeviceList/0/$ns3::LrWpanNetDevice/Mac/MacTxDequeue ns3::LrWpanMacHeader (  Frame Type = 1, Sec Enable = 0, Frame Pending = 0, Ack Request = 0, PAN ID Compress = 0, Frame Vers = 1, Dst Addrs Mode = 2, Src Addr Mode = 2, Sequence Num = 63, Dst Addr Pan ID = 0, m_addrShortDstAddr = 80:05, Src Addr Pan ID = 0, m_addrShortSrcAddr = 00:05) ns3::SixLowPanIphc (Compression kind: 31497) ns3::Icmpv6NS (( type = 135 (NS) code = 0 target = fe80::ff:fe00:5 checksum = 3962)) ns3::Icmpv6OptionLinkLayerAddress (( type = 1 length = 1 L2 Address = 00-06-02:00:00:00:00:05)) ns3::LrWpanMacTrailer ( FCS = 0)
t +0.012416s /NodeList/1/DeviceList/0/$ns3::LrWpanNetDevice/Mac/MacTx ns3::LrWpanMacHeader (  Frame Type = 1, Sec Enable = 0, Frame Pending = 0, Ack Request = 0, PAN ID Compress = 0, Frame Vers = 1, Dst Addrs Mode = 2, Src Addr Mode = 2, Sequence Num = 172, Dst Addr Pan ID = 0, m_addrShortDstAddr = 80:02, Src Addr Pan ID = 0, m_addrShortSrcAddr = 00:02) ns3::SixLowPanIphc (Compression kind: 31497) ns3::Icmpv6NS (( type = 135 (NS) code = 0 target = 2001:2::ff:fe00:2 checksum = 38488)) ns3::Icmpv6OptionLinkLayerAddress (( type = 1 length = 1 L2 Address = 00-06-02:00:00:00:00:02)) ns3::LrWpanMacTrailer ( FCS = 0)
- 0.014848 /NodeList/1/DeviceList/0/$ns3::LrWpanNetDevice/Mac/MacTxDequeue ns3::LrWpanMacHeader (  Frame Type = 1, Sec Enable = 0, Frame Pending = 0, Ack Request = 0, PAN ID Compress = 0, Frame Vers = 1, Dst Addrs Mode = 2, Src Addr Mode = 2, Sequence Num = 172, Dst Addr Pan ID = 0, m_addrShortDstAddr = 80:02, Src Addr Pan ID = 0, m_addrShortSrcAddr = 00:02) ns3::SixLowPanIphc (Compression kind: 31497) ns3::Icmpv6NS (( type = 135 (NS) code = 0 target = 2001:2::ff:fe00:2 checksum = 38488)) ns3::Icmpv6OptionLinkLayerAddress (( type = 1 length = 1 L2 Address = 00-06-02:00:00:00:00:02)) ns3::LrWpanMacTrailer ( FCS = 0)
r 0.014848 /NodeList/0/DeviceList/0/$ns3::LrWpanNetDevice/Mac/MacRx ns3::LrWpanMacHeader (  Frame Type = 1, Sec Enable = 0, Frame Pending = 0, Ack Request = 0, PAN ID Compress = 0, Frame Vers = 1, Dst Addrs Mode = 2, Src Addr Mode = 2, Sequence Num = 172, Dst Addr Pan ID = 0, m_addrShortDstAddr = 80:02, Src Addr Pan ID = 0, m_addrShortSrcAddr = 00:02) ns3::SixLowPanIphc (Compression kind: 31497) ns3::Icmpv6NS (( type = 135 (NS) code = 0 target = 2001:2::ff:fe00:2 checksum = 38488)) ns3::Icmpv6OptionLinkLayerAddress (( type = 1 length = 1 L2 Address = 00-06-02:00:00:00:00:02)) ns3::LrWpanMacTrailer ( FCS = 0)
r 0.014848 /NodeList/3/DeviceList/0/$ns3::LrWpanNetDevice/Mac/MacRx ns3::LrWpanMacHeader (  Frame Type = 1, Sec Enable = 0, Frame Pending = 0, Ack Request = 0, PAN ID Compress = 0, Frame Vers = 1, Dst Addrs Mode = 2, Src Addr Mode = 2, Sequence Num = 172, Dst Addr Pan ID = 0, m_addrShortDstAddr = 80:02, Src Addr Pan ID = 0, m_addrShortSrcAddr = 00:02) ns3::SixLowPanIphc (Compression kind: 31497) ns3::Icmpv6NS (( type = 135 (NS) code = 0 target = 2001:2::ff:fe00:2 checksum = 38488)) ns3::Icmpv6OptionLinkLayerAddress (( type = 1 length = 1 L2 Address = 00-06-02:00:00:00:00:02)) ns3::LrWpanMacTrailer ( FCS = 0)
r 0.0148481 /NodeList/5/DeviceList/0/$ns3::LrWpanNetDevice/Mac/MacRx ns3::LrWpanMacHeader (  Frame Type = 1, Sec Enable = 0, Frame Pending = 0, Ack Request = 0, PAN ID Compress = 0, Frame Vers = 1, Dst Addrs Mode = 2, Src Addr Mode = 2, Sequence Num = 172, Dst Addr Pan ID = 0, m_addrShortDstAddr = 80:02, Src Addr Pan ID = 0, m_addrShortSrcAddr = 00:02) ns3::SixLowPanIphc (Compression kind: 31497) ns3::Icmpv6NS (( type = 135 (NS) code = 0 target = 2001:2::ff:fe00:2 checksum = 38488)) ns3::Icmpv6OptionLinkLayerAddress (( type = 1 length = 1 L2 Address = 00-06-02:00:00:00:00:02)) ns3::LrWpanMacTrailer ( FCS = 0)
t +0.015392s /NodeList/2/DeviceList/0/$ns3::LrWpanNetDevice/Mac/MacTx ns3::LrWpanMacHeader (  Frame Type = 1, Sec Enable = 0, Frame Pending = 0, Ack Request = 0, PAN ID Compress = 0, Frame Vers = 1, Dst Addrs Mode = 2, Src Addr Mode = 2, Sequence Num = 144, Dst Addr Pan ID = 0, m_addrShortDstAddr = 80:03, Src Addr Pan ID = 0, m_addrShortSrcAddr = 00:03) ns3::SixLowPanIphc (Compression kind: 31497) ns3::Icmpv6NS (( type = 135 (NS) code = 0 target = fe80::ff:fe00:3 checksum = 5498)) ns3::Icmpv6OptionLinkLayerAddress (( type = 1 length = 1 L2 Address = 00-06-02:00:00:00:00:03)) ns3::LrWpanMacTrailer ( FCS = 0)
- 0.017824 /NodeList/2/DeviceList/0/$ns3::LrWpanNetDevice/Mac/MacTxDequeue ns3::LrWpanMacHeader (  Frame Type = 1, Sec Enable = 0, Frame Pending = 0, Ack Request = 0, PAN ID Compress = 0, Frame Vers = 1, Dst Addrs Mode = 2, Src Addr Mode = 2, Sequence Num = 144, Dst Addr Pan ID = 0, m_addrShortDstAddr = 80:03, Src Addr Pan ID = 0, m_addrShortSrcAddr = 00:03) ns3::SixLowPanIphc (Compression kind: 31497) ns3::Icmpv6NS (( type = 135 (NS) code = 0 target = fe80::ff:fe00:3 checksum = 5498)) ns3::Icmpv6OptionLinkLayerAddress (( type = 1 length = 1 L2 Address = 00-06-02:00:00:00:00:03)) ns3::LrWpanMacTrailer ( FCS = 0)
r 0.017824 /NodeList/5/DeviceList/0/$ns3::LrWpanNetDevice/Mac/MacRx ns3::LrWpanMacHeader (  Frame Type = 1, Sec Enable = 0, Frame Pending = 0, Ack Request = 0, PAN ID Compress = 0, Frame Vers = 1, Dst Addrs Mode = 2, Src Addr Mode = 2, Sequence Num = 144, Dst Addr Pan ID = 0, m_addrShortDstAddr = 80:03, Src Addr Pan ID = 0, m_addrShortSrcAddr = 00:03) ns3::SixLowPanIphc (Compression kind: 31497) ns3::Icmpv6NS (( type = 135 (NS) code = 0 target = fe80::ff:fe00:3 checksum = 5498)) ns3::Icmpv6OptionLinkLayerAddress (( type = 1 length = 1 L2 Address = 00-06-02:00:00:00:00:03)) ns3::LrWpanMacTrailer ( FCS = 0)
r 0.017824 /NodeList/3/DeviceList/0/$ns3::LrWpanNetDevice/Mac/MacRx ns3::LrWpanMacHeader (  Frame Type = 1, Sec Enable = 0, Frame Pending = 0, Ack Request = 0, PAN ID Compress = 0, Frame Vers = 1, Dst Addrs Mode = 2, Src Addr Mode = 2, Sequence Num = 144, Dst Addr Pan ID = 0, m_addrShortDstAddr = 80:03, Src Addr Pan ID = 0, m_addrShortSrcAddr = 00:03) ns3::SixLowPanIphc (Compression kind: 31497) ns3::Icmpv6NS (( type = 135 (NS) code = 0 target = fe80::ff:fe00:3 checksum = 5498)) ns3::Icmpv6OptionLinkLayerAddress (( type = 1 length = 1 L2 Address = 00-06-02:00:00:00:00:03)) ns3::LrWpanMacTrailer ( FCS = 0)
r 0.017824 /NodeList/6/DeviceList/0/$ns3::LrWpanNetDevice/Mac/MacRx ns3::LrWpanMacHeader (  Frame Type = 1, Sec Enable = 0, Frame Pending = 0, Ack Request = 0, PAN ID Compress = 0, Frame Vers = 1, Dst Addrs Mode = 2, Src Addr Mode = 2, Sequence Num = 144, Dst Addr Pan ID = 0, m_addrShortDstAddr = 80:03, Src Addr Pan ID = 0, m_addrShortSrcAddr = 00:03) ns3::SixLowPanIphc (Compression kind: 31497) ns3::Icmpv6NS (( type = 135 (NS) code = 0 target = fe80::ff:fe00:3 checksum = 5498)) ns3::Icmpv6OptionLinkLayerAddress (( type = 1 length = 1 L2 Address = 00-06-02:00:00:00:00:03)) ns3::LrWpanMacTrailer ( FCS = 0)