+ 0 /NodeList/0/DeviceList/0/$ns3::LrWpanNetDevice/Mac/MacTxEnqueue ns3::LrWpanMacHeader (  Frame Type = 1, Sec Enable = 0, Frame Pending = 0, Ack Request = 0, PAN ID Compress = 0, Frame Vers = 1, Dst Addrs Mode = 2, Src Addr Mode = 2, Sequence Num = 76, Dst Addr Pan ID = 0, m_addrShortDstAddr = 80:01, Src Addr Pan ID = 0, m_addrShortSrcAddr = 00:01) ns3::SixLowPanIphc (Compression kind: 31497) ns3::Icmpv6NS (( type = 135 (NS) code = 0 target = 2001:2::ff:fe00:1 checksum = 39256)) ns3::Icmpv6OptionLinkLayerAddress (( type = 1 length = 1 L2 Address = 00-06-02:00:00:00:00:01)) ns3::LrWpanMacTrailer ( FCS = 0)
+ 0 /NodeList/2/DeviceList/0/$ns3::LrWpanNetDevice/Mac/MacTxEnqueue ns3::LrWpanMacHeader (  Frame Type = 1, Sec Enable = 0, Frame Pending = 0, Ack Request = 0, PAN ID Compress = 0, Frame Vers = 1, Dst Addrs Mode = 2, Src Addr Mode = 2, Sequence Num = 143, Dst Addr Pan ID = 0, m_addrShortDstAddr = 80:03, Src Addr Pan ID = 0, m_addrShortSrcAddr = 00:03) ns3::SixLowPanIphc (Compression kind: 31497) ns3::Icmpv6NS (( type = 135 (NS) code = 0 target = fe80::ff:fe00:3 checksum = 5498)) ns3::Icmpv6OptionLinkLayerAddress (( type = 1 length = 1 L2 Address = 00-06-02:00:00:00:00:03)) ns3::LrWpanMacTrailer ( FCS = 0)
+ 0 /NodeList/2/DeviceList/0/$ns3::LrWpanNetDevice/Mac/MacTxEnqueue ns3::LrWpanMacHeader (  Frame Type = 1, Sec Enable = 0, Frame Pending = 0, Ack Request = 0, PAN ID Compress = 0, Frame Vers = 1, Dst Addrs Mode = 2, Src Addr Mode = 2, Sequence Num = 144, Dst Addr Pan ID = 0, m_addrShortDstAddr = 80:03, Src Addr Pan ID = 0, m_addrShortSrcAddr = 00:03) ns3::SixLowPanIphc (Compression kind: 31497) ns3::Icmpv6NS (( type = 135 (NS) code = 0 target = 2001:2::ff:fe00:3 checksum = 37720)) ns3::Icmpv6OptionLinkLayerAddress (( type = 1 length = 1 L2 Address = 00-06-02:00:00:00:00:03)) ns3::LrWpanMacTrailer ( FCS = 0)
+ 0 /NodeList/4/DeviceList/0/$ns3::LrWpanNetDevice/Mac/MacTxEnqueue ns3::LrWpanMacHeader (  Frame Type = 1, Sec Enable = 0, Frame Pending = 0, Ack Request = 0, PAN ID Compress = 0, Frame Vers = 1, Dst Addrs Mode = 2, Src Addr Mode = 2, Sequence Num = 63, Dst Addr Pan ID = 0, m_addrShortDstAddr = 80:05, Src Addr Pan ID = 0, m_addrShortSrcAddr = 00:05) ns3::SixLowPanIphc (Compression kind: 31497) ns3::Icmpv6NS (( type = 135 (NS) code = 0 target = 2001:2::ff:fe00:5 checksum = 36184)) ns3::Icmpv6OptionLinkLayerAddress (( type = 1 length = 1 L2 Address = 00-06-02:00:00:00:00:05)) ns3::LrWpanMacTrailer ( FCS = 0)
+ 0.001 /NodeList/6/DeviceList/0/$ns3::LrWpanNetDevice/Mac/MacTxEnqueue ns3::LrWpanMacHeader (  Frame Type = 1, Sec Enable = 0, Frame Pending = 0, Ack Request = 0, PAN ID Compress = 0, Frame Vers = 1, Dst Addrs Mode = 2, Src Addr Mode = 2, Sequence Num = 202, Dst Addr Pan ID = 0, m_addrShortDstAddr = 80:07, Src Addr Pan ID = 0, m_addrShortSrcAddr = 00:07) ns3::SixLowPanIphc (Compression kind: 31497) ns3::Icmpv6NS (( type = 135 (NS) code = 0 target = 2001:2::ff:fe00:7 checksum = 34648)) ns3::Icmpv6OptionLinkLayerAddress (( type = 1 length = 1 L2 Address = 00-06-02:00:00:00:00:07)) ns3::LrWpanMacTrailer ( FCS = 0)
+ 0.001 /NodeList/1/DeviceList/0/$ns3::LrWpanNetDevice/Mac/MacTxEnqueue ns3::LrWpanMacHeader (  Frame Type = 1, Sec Enable = 0, Frame Pending = 0, Ack Request = 0, PAN ID Compress = 0, Frame Vers = 1, Dst Addrs Mode = 2, Src Addr Mode = 2, Sequence Num = 172, Dst Addr Pan ID = 0, m_addrShortDstAddr = 80:01, Src Addr Pan ID = 0, m_addrShortSrcAddr = 00:02) ns3::SixLowPanIphc (Compression kind: 31497) ns3::Icmpv6NS (( type = 135 (NS) code = 0 target = 2001:2::ff:fe00:1 checksum = 37689)) ns3::Icmpv6OptionLinkLayerAddress (( type = 1 length = 1 L2 Address = 00-06-02:00:00:00:00:02)) ns3::LrWpanMacTrailer ( FCS = 0)
t +0.001792s /NodeList/0/DeviceList/0/$ns3::LrWpanNetDevice/Mac/MacTx ns3::LrWpanMacHeader (  Frame Type = 1, Sec Enable = 0, Frame Pending = 0, Ack Request = 0, PAN ID Compress = 0, Frame Vers = 1, Dst Addrs Mode = 2, Src Addr Mode = 2, Sequence Num = 76, Dst Addr Pan ID = 0, m_addrShortDstAddr = 80:01, Src Addr Pan ID = 0, m_addrShortSrcAddr = 00:01) ns3::SixLowPanIphc (Compression kind: 31497) ns3::Icmpv6NS (( type = 135 (NS) code = 0 target = 2001:2::ff:fe00:1 checksum = 39256)) ns3::Icmpv6OptionLinkLayerAddress (( type = 1 length = 1 L2 Address = 00-06-02:00:00:00:00:01)) ns3::LrWpanMacTrailer ( FCS = 0)
t +0.001792s /NodeList/2/DeviceList/0/$ns3::LrWpanNetDevice/Mac/MacTx ns3::LrWpanMacHeader (  Frame Type = 1, Sec Enable = 0, Frame Pending = 0, Ack Request = 0, PAN ID Compress = 0, Frame Vers = 1, Dst Addrs Mode = 2, Src Addr Mode = 2, Sequence Num = 143, Dst Addr Pan ID = 0, m_addrShortDstAddr = 80:03, Src Addr Pan ID = 0, m_addrShortSrcAddr = 00:03) ns3::SixLowPanIphc (Compression kind: 31497) ns3::Icmpv6NS (( type = 135 (NS) code = 0 target = fe80::ff:fe00:3 checksum = 5498)) ns3::Icmpv6OptionLinkLayerAddress (( type = 1 length = 1 L2 Address = 00-06-02:00:00:00:00:03)) ns3::LrWpanMacTrailer ( FCS = 0)
t +0.00196s /NodeList/1/DeviceList/0/$ns3::LrWpanNetDevice/Mac/MacTx ns3::LrWpanMacHeader (  Frame Type = 1, Sec Enable = 0, Frame Pending = 0, Ack Request = 0, PAN ID Compress = 0, Frame Vers = 1, Dst Addrs Mode = 2, Src Addr Mode = 2, Sequence Num = 172, Dst Addr Pan ID = 0, m_addrShortDstAddr = 80:01, Src Addr Pan ID = 0, m_addrShortSrcAddr = 00:02) ns3::SixLowPanIphc (Compression kind: 31497) ns3::Icmpv6NS (( type = 135 (NS) code = 0 target = 2001:2::ff:fe00:1 checksum = 37689)) ns3::Icmpv6OptionLinkLayerAddress (( type = 1 length = 1 L2 Address = 00-06-02:00:00:00:00:02)) ns3::LrWpanMacTrailer ( FCS = 0)
+ 0.002 /NodeList/0/DeviceList/0/$ns3::LrWpanNetDevice/Mac/MacTxEnqueue ns3::LrWpanMacHeader (  Frame Type = 1, Sec Enable = 0, Frame Pending = 0, Ack Request = 0, PAN ID Compress = 0, Frame Vers = 1, Dst Addrs Mode = 2, Src Addr Mode = 2, Sequence Num = 77, Dst Addr Pan ID = 0, m_addrShortDstAddr = 80:01, Src Addr Pan ID = 0, m_addrShortSrcAddr = 00:01) ns3::SixLowPanIphc (Compression kind: 31497) ns3::Icmpv6NS (( type = 135 (NS) code = 0 target = fe80::ff:fe00:1 checksum = 7034)) ns3::Icmpv6OptionLinkLayerAddress (( type = 1 length = 1 L2 Address = 00-06-02:00:00:00:00:01)) ns3::LrWpanMacTrailer ( FCS = 0)
+ 0.002 /NodeList/5/DeviceList/0/$ns3::LrWpanNetDevice/Mac/MacTxEnqueue ns3::LrWpanMacHeader (  Frame Type = 1, Sec Enable = 0, Frame Pending = 0, Ack Request = 0, PAN ID Compress = 0, Frame Vers = 1, Dst Addrs Mode = 2, Src Addr Mode = 2, Sequence Num = 226, Dst Addr Pan ID = 0, m_addrShortDstAddr = 80:06, Src Addr Pan ID = 0, m_addrShortSrcAddr = 00:06) ns3::SixLowPanIphc (Compression kind: 31497) ns3::Icmpv6NS (( type = 135 (NS) code = 0 target = fe80::ff:fe00:6 checksum = 3194)) ns3::Icmpv6OptionLinkLayerAddress (( type = 1 length = 1 L2 Address = 00-06-02:00:00:00:00:06)) ns3::LrWpanMacTrailer ( FCS = 0)
+ 0.003 /NodeList/3/DeviceList/0/$ns3::LrWpanNetDevice/Mac/MacTxEnqueue ns3::LrWpanMacHeader (  Frame Type = 1, Sec Enable = 0, Frame Pending = 0, Ack Request = 0, PAN ID Compress = 0, Frame Vers = 1, Dst Addrs Mode = 2, Src Addr Mode = 2, Sequence Num = 120, Dst Addr Pan ID = 0, m_addrShortDstAddr = 80:04, Src Addr Pan ID = 0, m_addrShortSrcAddr = 00:04) ns3::SixLowPanIphc (Compression kind: 31497) ns3::Icmpv6NS (( type = 135 (NS) code = 0 target = fe80::ff:fe00:4 checksum = 4730)) ns3::Icmpv6OptionLinkLayerAddress (( type = 1 length = 1 L2 Address = 00-06-02:00:00:00:00:04)) ns3::LrWpanMacTrailer ( FCS = 0)
+ 0.004 /NodeList/1/DeviceList/0/$ns3::LrWpanNetDevice/Mac/MacTxEnqueue ns3::LrWpanMacHeader (  Frame Type = 1, Sec Enable = 0, Frame Pending = 0, Ack Request = 0, PAN ID Compress = 0, Frame Vers = 1, Dst Addrs Mode = 2, Src Addr Mode = 2, Sequence Num = 173, Dst Addr Pan ID = 0, m_addrShortDstAddr = 80:02, Src Addr Pan ID = 0, m_addrShortSrcAddr = 00:02) ns3::SixLowPanIphc (Compression kind: 31497) ns3::Icmpv6NS (( type = 135 (NS) code = 0 target = 2001:2::ff:fe00:2 checksum = 38488)) ns3::Icmpv6OptionLinkLayerAddress (( type = 1 length = 1 L2 Address = 00-06-02:00:00:00:00:02)) ns3::LrWpanMacTrailer ( FCS = 0)
+ 0.004 /NodeList/8/DeviceList/0/$ns3::LrWpanNetDevice/Mac/MacTxEnqueue ns3::LrWpanMacHeader (  Frame Type = 1, Sec Enable = 0, Frame Pending = 0, Ack Request = 0, PAN ID Compress = 0, Frame Vers = 1, Dst Addrs Mode = 2, Src Addr Mode = 2, Sequence Num = 148, Dst Addr Pan ID = 0, m_addrShortDstAddr = 80:09, Src Addr Pan ID = 0, m_addrShortSrcAddr = 00:09) ns3::SixLowPanIphc (Compression kind: 31497) ns3::Icmpv6NS (( type = 135 (NS) code = 0 target = fe80::ff:fe00:9 checksum = 890)) ns3::Icmpv6OptionLinkLayerAddress (( type = 1 length = 1 L2 Address = 00-06-02:00:00:00:00:09)) ns3::LrWpanMacTrailer ( FCS = 0)
- 0.004224 /NodeList/0/DeviceList/0/$ns3::LrWpanNetDevice/Mac/MacTxDequeue ns3::LrWpanMacHeader (  Frame Type = 1, Sec Enable = 0, Frame Pending = 0, Ack Request = 0, PAN ID Compress = 0, Frame Vers = 1, Dst Addrs Mode = 2, Src Addr Mode = 2, Sequence Num = 76, Dst Addr Pan ID = 0, m_addrShortDstAddr = 80:01, Src Addr Pan ID = 0, m_addrShortSrcAddr = 00:01) ns3::SixLowPanIphc (Compression kind: 31497) ns3::Icmpv6NS (( type = 135 (NS) code = 0 target = 2001:2::ff:fe00:1 checksum = 39256)) ns3::Icmpv6OptionLinkLayerAddress (( type = 1 length = 1 L2 Address = 00-06-02:00:00:00:00:01)) ns3::LrWpanMacTrailer ( FCS = 0)
- 0.004224 /NodeList/2/DeviceList/0/$ns3::LrWpanNetDevice/Mac/MacTxDequeue ns3::LrWpanMacHeader (  Frame Type = 1, Sec Enable = 0, Frame Pending = 0, Ack Request = 0, PAN ID Compress = 0, Frame Vers = 1, Dst Addrs Mode = 2, Src Addr Mode = 2, Sequence Num = 143, Dst Addr Pan ID = 0, m_addrShortDstAddr = 80:03, Src Addr Pan ID = 0, m_addrShortSrcAddr = 00:03) ns3::SixLowPanIphc (Compression kind: 31497) ns3::Icmpv6NS (( type = 135 (NS) code = 0 target = fe80::ff:fe00:3 checksum = 5498)) ns3::Icmpv6OptionLinkLayerAddress (( type = 1 length = 1 L2 Address = 00-06-02:00:00:00:00:03)) ns3::LrWpanMacTrailer ( FCS = 0)
r 0.00422401 /NodeList/6/DeviceList/0/$ns3::LrWpanNetDevice/Mac/MacRx ns3::LrWpanMacHeader (  Frame Type = 1, Sec Enable = 0, Frame Pending = 0, Ack Request = 0, PAN ID Compress = 0, Frame Vers = 1, Dst Addrs Mode = 2, Src Addr Mode = 2, Sequence Num = 76, Dst Addr Pan ID = 0, m_addrShortDstAddr = 80:01, Src Addr Pan ID = 0, m_addrShortSrcAddr = 00:01) ns3::SixLowPanIphc (Compression kind: 31497) ns3::Icmpv6NS (( type = 135 (NS) code = 0 target = 2001:2::ff:fe00:1 checksum = 39256)) ns3::Icmpv6OptionLinkLayerAddress (( type = 1 length = 1 L2 Address = 00-06-02:00:00:00:00:01)) ns3::LrWpanMacTrailer ( FCS = 0)
r 0.00422402 /NodeList/8/DeviceList/0/$ns3::LrWpanNetDevice/Mac/MacRx ns3::LrWpanMacHeader (  Frame Type = 1, Sec Enable = 0, Frame Pending = 0, Ack Request = 0, PAN ID Compress = 0, Frame Vers = 1, Dst Addrs Mode = 2, Src Addr Mode = 2, Sequence Num = 76, Dst Addr Pan ID = 0, m_addrShortDstAddr = 80:01, Src Addr Pan ID = 0, m_addrShortSrcAddr = 00:01) ns3::SixLowPanIphc (Compression kind: 31497) ns3::Icmpv6NS (( type = 135 (NS) code = 0 target = 2001:2::ff:fe00:1 checksum = 39256)) ns3::Icmpv6OptionLinkLayerAddress (( type = 1 length = 1 L2 Address = 00-06-02:00:00:00:00:01)) ns3::LrWpanMacTrailer ( FCS = 0)
r 0.00422402 /NodeList/7/DeviceList/0/$ns3::LrWpanNetDevice/Mac/MacRx ns3::LrWpanMacHeader (  Frame Type = 1, Sec Enable = 0, Frame Pending = 0, Ack Request = 0, PAN ID Compress = 0, Frame Vers = 1, Dst Addrs Mode = 2, Src Addr Mode = 2, Sequence Num = 76, Dst Addr Pan ID = 0, m_addrShortDstAddr = 80:01, Src Addr Pan ID = 0, m_addrShortSrcAddr = 00:01) ns3::SixLowPanIphc (Compression kind: 31497) ns3::Icmpv6NS (( type = 135 (NS) code = 0 target = 2001:2::ff:fe00:1 checksum = 39256)) ns3::Icmpv6OptionLinkLayerAddress (( type = 1 length = 1 L2 Address = 00-06-02:00:00:00:00:01)) ns3::LrWpanMacTrailer ( FCS = 0)
r 0.00422402 /NodeList/5/DeviceList/0/$ns3::LrWpanNetDevice/Mac/MacRx ns3::LrWpanMacHeader (  Frame Type = 1, Sec Enable = 0, Frame Pending = 0, Ack Request = 0, PAN ID Compress = 0, Frame Vers = 1, Dst Addrs Mode = 2, Src Addr Mode = 2, Sequence Num = 143, Dst Addr Pan ID = 0, m_addrShortDstAddr = 80:03, Src Addr Pan ID = 0, m_addrShortSrcAddr = 00:03) ns3::SixLowPanIphc (Compression kind: 31497) ns3::Icmpv6NS (( type = 135 (NS) code = 0 target = fe80::ff:fe00:3 checksum = 5498)) ns3::Icmpv6OptionLinkLayerAddress (( type = 1 length = 1 L2 Address = 00-06-02:00:00:00:00:03)) ns3::LrWpanMacTrailer ( FCS = 0)
- 0.004392 /NodeList/1/DeviceList/0/$ns3::LrWpanNetDevice/Mac/MacTxDequeue ns3::LrWpanMacHeader (  Frame Type = 1, Sec Enable = 0, Frame Pending = 0, Ack Request = 0, PAN ID Compress = 0, Frame Vers = 1, Dst Addrs Mode = 2, Src Addr Mode = 2, Sequence Num = 172, Dst Addr Pan ID = 0, m_addrShortDstAddr = 80:01, Src Addr Pan ID = 0, m_addrShortSrcAddr = 00:02) ns3::SixLowPanIphc (Compression kind: 31497) ns3::Icmpv6NS (( type = 135 (NS) code = 0 target = 2001:2::ff:fe00:1 checksum = 37689)) ns3::Icmpv6OptionLinkLayerAddress (( type = 1 length = 1 L2 Address = 00-06-02:00:00:00:00:02)) ns3::LrWpanMacTrailer ( FCS = 0)
t +0.00492s /NodeList/3/DeviceList/0/$ns3::LrWpanNetDevice/Mac/MacTx ns3::LrWpanMacHeader (  Frame Type = 1, Sec Enable = 0, Frame Pending = 0, Ack Request = 0, PAN ID Compress = 0, Frame Vers = 1, Dst Addrs Mode = 2, Src Addr Mode = 2, Sequence Num = 120, Dst Addr Pan ID = 0, m_addrShortDstAddr = 80:04, Src Addr Pan ID = 0, m_addrShortSrcAddr = 00:04) ns3::SixLowPanIphc (Compression kind: 31497) ns3::Icmpv6NS (( type = 135 (NS) code = 0 target = fe80::ff:fe00:4 checksum = 4730)) ns3::Icmpv6OptionLinkLayerAddress (( type = 1 length = 1 L2 Address = 00-06-02:00:00:00:00:04)) ns3::LrWpanMacTrailer ( FCS = 0)
+ 0.005 /NodeList/3/DeviceList/0/$ns3::LrWpanNetDevice/Mac/MacTxEnqueue ns3::LrWpanMacHeader (  Frame Type = 1, Sec Enable = 0, Frame Pending = 0, Ack Request = 0, PAN ID Compress = 0, Frame Vers = 1, Dst Addrs Mode = 2, Src Addr Mode = 2, Sequence Num = 121, Dst Addr Pan ID = 0, m_addrShortDstAddr = 80:04, Src Addr Pan ID = 0, m_addrShortSrcAddr = 00:04) ns3::SixLowPanIphc (Compression kind: 31497) ns3::Icmpv6NS (( type = 135 (NS) code = 0 target = 2001:2::ff:fe00:4 checksum = 36952)) ns3::Icmpv6OptionLinkLayerAddress (( type = 1 length = 1 L2 Address = 00-06-02:00:00:00:00:04)) ns3::LrWpanMacTrailer ( FCS = 0)
+ 0.005 /NodeList/7/DeviceList/0/$ns3::LrWpanNetDevice/Mac/MacTxEnqueue ns3::LrWpanMacHeader (  Frame Type = 1, Sec Enable = 0, Frame Pending = 0, Ack Request = 0, PAN ID Compress = 0, Frame Vers = 1, Dst Addrs Mode = 2, Src Addr Mode = 2, Sequence Num = 163, Dst Addr Pan ID = 0, m_addrShortDstAddr = 80:08, Src Addr Pan ID = 0, m_addrShortSrcAddr = 00:08) ns3::SixLowPanIphc (Compression kind: 31497) ns3::Icmpv6NS (( type = 135 (NS) code = 0 target = 2001:2::ff:fe00:8 checksum = 33880)) ns3::Icmpv6OptionLinkLayerAddress (( type = 1 length = 1 L2 Address = 00-06-02:00:00:00:00:08)) ns3::LrWpanMacTrailer ( FCS = 0)
+ 0.007 /NodeList/1/DeviceList/0/$ns3::LrWpanNetDevice/Mac/MacTxEnqueue ns3::LrWpanMacHeader (  Frame Type = 1, Sec Enable = 0, Frame Pending = 0, Ack Request = 0, PAN ID Compress = 0, Frame Vers = 1, Dst Addrs Mode = 2, Src Addr Mode = 2, Sequence Num = 174, Dst Addr Pan ID = 0, m_addrShortDstAddr = 80:02, Src Addr Pan ID = 0, m_addrShortSrcAddr = 00:02) ns3::SixLowPanIphc (Compression kind: 31497) ns3::Icmpv6NS (( type = 135 (NS) code = 0 target = fe80::ff:fe00:2 checksum = 6266)) ns3::Icmpv6OptionLinkLayerAddress (( type = 1 length = 1 L2 Address = 00-06-02:00:00:00:00:02)) ns3::LrWpanMacTrailer ( FCS = 0)
- 0.007352 /NodeList/3/DeviceList/0/$ns3::LrWpanNetDevice/Mac/MacTxDequeue ns3::LrWpanMacHeader (  Frame Type = 1, Sec Enable = 0, Frame Pending = 0, Ack Request = 0, PAN ID Compress = 0, Frame Vers = 1, Dst Addrs Mode = 2, Src Addr Mode = 2, Sequence Num = 120, Dst Addr Pan ID = 0, m_addrShortDstAddr = 80:04, Src Addr Pan ID = 0, m_addrShortSrcAddr = 00:04) ns3::SixLowPanIphc (Compression kind: 31497) ns3::Icmpv6NS (( type = 135 (NS) code = 0 target = fe80::ff:fe00:4 checksum = 4730)) ns3::Icmpv6OptionLinkLayerAddress (( type = 1 length = 1 L2 Address = 00-06-02:00:00:00:00:04)) ns3::LrWpanMacTrailer ( FCS = 0)
r 0.00735201 /NodeList/6/DeviceList/0/$ns3::LrWpanNetDevice/Mac/MacRx ns3::LrWpanMacHeader (  Frame Type = 1, Sec Enable = 0, Frame Pending = 0, Ack Request = 0, PAN ID Compress = 0, Frame Vers = 1, Dst Addrs Mode = 2, Src Addr Mode = 2, Sequence Num = 120, Dst Addr Pan ID = 0, m_addrShortDstAddr = 80:04, Src Addr Pan ID = 0, m_addrShortSrcAddr = 00:04) ns3::SixLowPanIphc (Compression kind: 31497) ns3::Icmpv6NS (( type = 135 (NS) code = 0 target = fe80::ff:fe00:4 checksum = 4730)) ns3::Icmpv6OptionLinkLayerAddress (( type = 1 length = 1 L2 Address = 00-06-02:00:00:00:00:04)) ns3::LrWpanMacTrailer ( FCS = 0)
r 0.00735204 /NodeList/7/DeviceList/0/$ns3::LrWpanNetDevice/Mac/MacRx ns3::LrWpanMacHeader (  Frame Type = 1, Sec Enable = 0, Frame Pending = 0, Ack Request = 0, PAN ID Compress = 0, Frame Vers = 1, Dst Addrs Mode = 2, Src Addr Mode = 2, Sequence Num = 120, Dst Addr Pan ID = 0, m_addrShortDstAddr = 80:04, Src Addr Pan ID = 0, m_addrShortSrcAddr = 00:04) ns3::SixLowPanIphc (Compression kind: 31497) ns3::Icmpv6NS (( type = 135 (NS) code = 0 target = fe80::ff:fe00:4 checksum = 4730)) ns3::Icmpv6OptionLinkLayerAddress (( type = 1 length = 1 L2 Address = 00-06-02:00:00:00:00:04)) ns3::LrWpanMacTrailer ( FCS = 0)
r 0.00735204 /NodeList/8/DeviceList/0/$ns3::LrWpanNetDevice/Mac/MacRx ns3::LrWpanMacHeader (  Frame Type = 1, Sec Enable = 0, Frame Pending = 0, Ack Request = 0, PAN ID Compress = 0, Frame Vers = 1, Dst Addrs Mode = 2, Src Addr Mode = 2, Sequence Num = 120, Dst Addr Pan ID = 0, m_addrShortDstAddr = 80:04, Src Addr Pan ID = 0, m_addrShortSrcAddr = 00:04) ns3::SixLowPanIphc (Compression kind: 31497) ns3::Icmpv6NS (( type = 135 (NS) code = 0 target = fe80::ff:fe00:4 checksum = 4730)) ns3::Icmpv6OptionLinkLayerAddress (( type = 1 length = 1 L2 Address = 00-06-02:00:00:00:00:04)) ns3::LrWpanMacTrailer ( FCS = 0)
r 0.00735205 /NodeList/5/DeviceList/0/$ns3::LrWpanNetDevice/Mac/MacRx ns3::LrWpanMacHeader (  Frame Type = 1, Sec Enable = 0, Frame Pending = 0, Ack Request = 0, PAN ID Compress = 0, Frame Vers = 1, Dst Addrs Mode = 2, Src Addr Mode = 2, Sequence Num = 120, Dst Addr Pan ID = 0, m_addrShortDstAddr = 80:04, Src Addr Pan ID = 0, m_addrShortSrcAddr = 00:04) ns3::SixLowPanIphc (Compression kind: 31497) ns3::Icmpv6NS (( type = 135 (NS) code = 0 target = fe80::ff:fe00:4 checksum = 4730)) ns3::Icmpv6OptionLinkLayerAddress (( type = 1 length = 1 L2 Address = 00-06-02:00:00:00:00:04)) ns3::LrWpanMacTrailer ( FCS = 0)
r 0.00735208 /NodeList/4/DeviceList/0/$ns3::LrWpanNetDevice/Mac/MacRx ns3::LrWpanMacHeader (  Frame Type = 1, Sec Enable = 0, Frame Pending = 0, Ack Request = 0, PAN ID Compress = 0, Frame Vers = 1, Dst Addrs Mode = 2, Src Addr Mode = 2, Sequence Num = 120, Dst Addr Pan ID = 0, m_addrShortDstAddr = 80:04, Src Addr Pan ID = 0, m_addrShortSrcAddr = 00:04) ns3::SixLowPanIphc (Compression kind: 31497) ns3::Icmpv6NS (( type = 135 (NS) code = 0 target = fe80::ff:fe00:4 checksum = 4730)) ns3::Icmpv6OptionLinkLayerAddress (( type = 1 length = 1 L2 Address = 00-06-02:00:00:00:00:04)) ns3::LrWpanMacTrailer ( FCS = 0)
t +0.00756s /NodeList/7/DeviceList/0/$ns3::LrWpanNetDevice/Mac/MacTx ns3::LrWpanMacHeader (  Frame Type = 1, Sec Enable = 0, Frame Pending = 0, Ack Request = 0, PAN ID Compress = 0, Frame Vers = 1, Dst Addrs Mode = 2, Src Addr Mode = 2, Sequence Num = 163, Dst Addr Pan ID = 0, m_addrShortDstAddr = 80:08, Src Addr Pan ID = 0, m_addrShortSrcAddr = 00:08) ns3::SixLowPanIphc (Compression kind: 31497) ns3::Icmpv6NS (( type = 135 (NS) code = 0 target = 2001:2::ff:fe00:8 checksum = 33880)) ns3::Icmpv6OptionLinkLayerAddress (( type = 1 length = 1 L2 Address = 00-06-02:00:00:00:00:08)) ns3::LrWpanMacTrailer ( FCS = 0)
t +0.007592s /NodeList/1/DeviceList/0/$ns3::LrWpanNetDevice/Mac/MacTx ns3::LrWpanMacHeader (  Frame Type = 1, Sec Enable = 0, Frame Pending = 0, Ack Request = 0, PAN ID Compress = 0, Frame Vers = 1, Dst Addrs Mode = 2, Src Addr Mode = 2, Sequence Num = 173, Dst Addr Pan ID = 0, m_addrShortDstAddr = 80:02, Src Addr Pan ID = 0, m_addrShortSrcAddr = 00:02) ns3::SixLowPanIphc (Compression kind: 31497) ns3::Icmpv6NS (( type = 135 (NS) code = 0 target = 2001:2::ff:fe00:2 checksum = 38488)) ns3::Icmpv6OptionLinkLayerAddress (( type = 1 length = 1 L2 Address = 00-06-02:00:00:00:00:02)) ns3::LrWpanMacTrailer ( FCS = 0)
+ 0.008 /NodeList/4/DeviceList/0/$ns3::LrWpanNetDevice/Mac/MacTxEnqueue ns3::LrWpanMacHeader (  Frame Type = 1, Sec Enable = 0, Frame Pending = 0, Ack Request = 0, PAN ID Compress = 0, Frame Vers = 1, Dst Addrs Mode = 2, Src Addr Mode = 2, Sequence Num = 64, Dst Addr Pan ID = 0, m_addrShortDstAddr = 80:05, Src Addr Pan ID = 0, m_addrShortSrcAddr = 00:05) ns3::SixLowPanIphc (Compression kind: 31497) ns3::Icmpv6NS (( type = 135 (NS) code = 0 target = fe80::ff:fe00:5 checksum = 3962)) ns3::Icmpv6OptionLinkLayerAddress (( type = 1 length = 1 L2 Address = 00-06-02:00:00:00:00:05)) ns3::LrWpanMacTrailer ( FCS = 0)
+ 0.008 /NodeList/5/DeviceList/0/$ns3::LrWpanNetDevice/Mac/MacTxEnqueue ns3::LrWpanMacHeader (  Frame Type = 1, Sec Enable = 0, Frame Pending = 0, Ack Request = 0, PAN ID Compress = 0, Frame Vers = 1, Dst Addrs Mode = 2, Src Addr Mode = 2, Sequence Num = 227, Dst Addr Pan ID = 0, m_addrShortDstAddr = 80:06, Src Addr Pan ID = 0, m_addrShortSrcAddr = 00:06) ns3::SixLowPanIphc (Compression kind: 31497) ns3::Icmpv6NS (( type = 135 (NS) code = 0 target = 2001:2::ff:fe00:6 checksum = 35416)) ns3::Icmpv6OptionLinkLayerAddress (( type = 1 length = 1 L2 Address = 00-06-02:00:00:00:00:06)) ns3::LrWpanMacTrailer ( FCS = 0)
+ 0.008 /NodeList/6/DeviceList/0/$ns3::LrWpanNetDevice/Mac/MacTxEnqueue ns3::LrWpanMacHeader (  Frame Type = 1, Sec Enable = 0, Frame Pending = 0, Ack Request = 0, PAN ID Compress = 0, Frame Vers = 1, Dst Addrs Mode = 2, Src Addr Mode = 2, Sequence Num = 203, Dst Addr Pan ID = 0, m_addrShortDstAddr = 80:07, Src Addr Pan ID = 0, m_addrShortSrcAddr = 00:07) ns3::SixLowPanIphc (Compression kind: 31497) ns3::Icmpv6NS (( type = 135 (NS) code = 0 target = fe80::ff:fe00:7 checksum = 2426)) ns3::Icmpv6OptionLinkLayerAddress (( type = 1 length = 1 L2 Address = 00-06-02:00:00:00:00:07)) ns3::LrWpanMacTrailer ( FCS = 0)
+ 0.008 /NodeList/8/DeviceList/0/$ns3::LrWpanNetDevice/Mac/MacTxEnqueue ns3::LrWpanMacHeader (  Frame Type = 1, Sec Enable = 0, Frame Pending = 0, Ack Request = 0, PAN ID Compress = 0, Frame Vers = 1, Dst Addrs Mode = 2, Src Addr Mode = 2, Sequence Num = 149, Dst Addr Pan ID = 0, m_addrShortDstAddr = 80:09, Src Addr Pan ID = 0, m_addrShortSrcAddr = 00:09) ns3::SixLowPanIphc (Compression kind: 31497) ns3::Icmpv6NS (( type = 135 (NS) code = 0 target = 2001:2::ff:fe00:9 checksum = 33112)) ns3::Icmpv6OptionLinkLayerAddress (( type = 1 length = 1 L2 Address = 00-06-02:00:00:00:00:09)) ns3::LrWpanMacTrailer ( FCS = 0)
+ 0.009 /NodeList/7/DeviceList/0/$ns3::LrWpanNetDevice/Mac/MacTxEnqueue ns3::LrWpanMacHeader (  Frame Type = 1, Sec Enable = 0, Frame Pending = 0, Ack Request = 0, PAN ID Compress = 0, Frame Vers = 1, Dst Addrs Mode = 2, Src Addr Mode = 2, Sequence Num = 164, Dst Addr Pan ID = 0, m_addrShortDstAddr = 80:08, Src Addr Pan ID = 0, m_addrShortSrcAddr = 00:08) ns3::SixLowPanIphc (Compression kind: 31497) ns3::Icmpv6NS (( type = 135 (NS) code = 0 target = fe80::ff:fe00:8 checksum = 1658)) ns3::Icmpv6OptionLinkLayerAddress (( type = 1 length = 1 L2 Address = 00-06-02:00:00:00:00:08)) ns3::LrWpanMacTrailer ( FCS = 0)
- 0.009992 /NodeList/7/DeviceList/0/$ns3::LrWpanNetDevice/Mac/MacTxDequeue ns3::LrWpanMacHeader (  Frame Type = 1, Sec Enable = 0, Frame Pending = 0, Ack Request = 0, PAN ID Compress = 0, Frame Vers = 1, Dst Addrs Mode = 2, Src Addr Mode = 2, Sequence Num = 163, Dst Addr Pan ID = 0, m_addrShortDstAddr = 80:08, Src Addr Pan ID = 0, m_addrShortSrcAddr = 00:08) ns3::SixLowPanIphc (Compression kind: 31497) ns3::Icmpv6NS (( type = 135 (NS) code = 0 target = 2001:2::ff:fe00:8 checksum = 33880)) ns3::Icmpv6OptionLinkLayerAddress (( type = 1 length = 1 L2 Address = 00-06-02:00:00:00:00:08)) ns3::LrWpanMacTrailer ( FCS = 0)
r 0.00999201 /NodeList/8/DeviceList/0/$ns3::LrWpanNetDevice/Mac/MacRx ns3::LrWpanMacHeader (  Frame Type = 1, Sec Enable = 0, Frame Pending = 0, Ack Request = 0, PAN ID Compress = 0, Frame Vers = 1, Dst Addrs Mode = 2, Src Addr Mode = 2, Sequence Num = 163, Dst Addr Pan ID = 0, m_addrShortDstAddr = 80:08, Src Addr Pan ID = 0, m_addrShortSrcAddr = 00:08) ns3::SixLowPanIphc (Compression kind: 31497) ns3::Icmpv6NS (( type = 135 (NS) code = 0 target = 2001:2::ff:fe00:8 checksum = 33880)) ns3::Icmpv6OptionLinkLayerAddress (( type = 1 length = 1 L2 Address = 00-06-02:00:00:00:00:08)) ns3::LrWpanMacTrailer ( FCS = 0)
r 0.00999204 /NodeList/4/DeviceList/0/$ns3::LrWpanNetDevice/Mac/MacRx ns3::LrWpanMacHeader (  Frame Type = 1, Sec Enable = 0, Frame Pending = 0, Ack Request = 0, PAN ID Compress = 0, Frame Vers = 1, Dst Addrs Mode = 2, Src Addr Mode = 2, Sequence Num = 163, Dst Addr Pan ID = 0, m_addrShortDstAddr = 80:08, Src Addr Pan ID = 0, m_addrShortSrcAddr = 00:08) ns3::SixLowPanIphc (Compression kind: 31497) ns3::Icmpv6NS (( type = 135 (NS) code = 0 target = 2001:2::ff:fe00:8 checksum = 33880)) ns3::Icmpv6OptionLinkLayerAddress (( type = 1 length = 1 L2 Address = 00-06-02:00:00:00:00:08)) ns3::LrWpanMacTrailer ( FCS = 0)
r 0.00999207 /NodeList/5/DeviceList/0/$ns3::LrWpanNetDevice/Mac/MacRx ns3::LrWpanMacHeader (  Frame Type = 1, Sec Enable = 0, Frame Pending = 0, Ack Request = 0, PAN ID Compress = 0, Frame Vers = 1, Dst Addrs Mode = 2, Src Addr Mode = 2, Sequence Num = 163, Dst Addr Pan ID = 0, m_addrShortDstAddr = 80:08, Src Addr Pan ID = 0, m_addrShortSrcAddr = 00:08) ns3::SixLowPanIphc (Compression kind: 31497) ns3::Icmpv6NS (( type = 135 (NS) code = 0 target = 2001:2::ff:fe00:8 checksum = 33880)) ns3::Icmpv6OptionLinkLayerAddress (( type = 1 length = 1 L2 Address = 00-06-02:00:00:00:00:08)) ns3::LrWpanMacTrailer ( FCS = 0)
- 0.010024 /NodeList/1/DeviceList/0/$ns3::LrWpanNetDevice/Mac/MacTxDequeue ns3::LrWpanMacHeader (  Frame Type = 1, Sec Enable = 0, Frame Pending = 0, Ack Request = 0, PAN ID Compress = 0, Frame Vers = 1, Dst Addrs Mode = 2, Src Addr Mode = 2, Sequence Num = 173, Dst Addr Pan ID = 0, m_addrShortDstAddr = 80:02, Src Addr Pan ID = 0, m_addrShortSrcAddr = 00:02) ns3::SixLowPanIphc (Compression kind: 31497) ns3::Icmpv6NS (( type = 135 (NS) code = 0 target = 2001:2::ff:fe00:2 checksum = 38488)) ns3::Icmpv6OptionLinkLayerAddress (( type = 1 length = 1 L2 Address = 00-06-02:00:00:00:00:02)) ns3::LrWpanMacTrailer ( FCS = 0)
t +0.012104s /NodeList/7/DeviceList/0/$ns3::LrWpanNetDevice/Mac/MacTx ns3::LrWpanMacHeader (  Frame Type = 1, Sec Enable = 0, Frame Pending = 0, Ack Request = 0, PAN ID Compress = 0, Frame Vers = 1, Dst Addrs Mode = 2, Src Addr Mode = 2, Sequence Num = 164, Dst Addr Pan ID = 0, m_addrShortDstAddr = 80:08, Src Addr Pan ID = 0, m_addrShortSrcAddr = 00:08) ns3::SixLowPanIphc (Compression kind: 31497) ns3::Icmpv6NS (( type = 135 (NS) code = 0 target = fe80::ff:fe00:8 checksum = 1658)) ns3::Icmpv6OptionLinkLayerAddress (( type = 1 length = 1 L2 Address = 00-06-02:00:00:00:00:08)) ns3::LrWpanMacTrailer ( FCS = 0)
t +0.012224s /NodeList/2/DeviceList/0/$ns3::LrWpanNetDevice/Mac/MacTx ns3::LrWpanMacHeader (  Frame Type = 1, Sec Enable = 0, Frame Pending = 0, Ack Request = 0, PAN ID Compress = 0, Frame Vers = 1, Dst Addrs Mode = 2, Src Addr Mode = 2, Sequence Num = 144, Dst Addr Pan ID = 0, m_addrShortDstAddr = 80:03, Src Addr Pan ID = 0, m_addrShortSrcAddr = 00:03) ns3::SixLowPanIphc (Compression kind: 31497) ns3::Icmpv6NS (( type = 135 (NS) code = 0 target = 2001:2::ff:fe00:3 checksum = 37720)) ns3::Icmpv6OptionLinkLayerAddress (( type = 1 length = 1 L2 Address = 00-06-02:00:00:00:00:03)) ns3::LrWpanMacTrailer ( FCS = 0)
d 0.013632 /NodeList/4/DeviceList/0/$ns3::LrWpanNetDevice/Mac/MacTxDrop ns3::LrWpanMacHeader (  Frame Type = 1, Sec Enable = 0, Frame Pending = 0, Ack Request = 0, PAN ID Compress = 0, Frame Vers = 1, Dst Addrs Mode = 2, Src Addr Mode = 2, Sequence Num = 63, Dst Addr Pan ID = 0, m_addrShortDstAddr = 80:05, Src Addr Pan ID = 0, m_addrShortSrcAddr = 00:05) ns3::SixLowPanIphc (Compression kind: 31497) ns3::Icmpv6NS (( type = 135 (NS) code = 0 target = 2001:2::ff:fe00:5 checksum = 36184)) ns3::Icmpv6OptionLinkLayerAddress (( type = 1 length = 1 L2 Address = 00-06-02:00:00:00:00:05)) ns3::LrWpanMacTrailer ( FCS = 0)
- 0.013632 /NodeList/4/DeviceList/0/$ns3::LrWpanNetDevice/Mac/MacTxDequeue ns3::LrWpanMacHeader (  Frame Type = 1, Sec Enable = 0, Frame Pending = 0, Ack Request = 0, PAN ID Compress = 0, Frame Vers = 1, Dst Addrs Mode = 2, Src Addr Mode = 2, Sequence Num = 63, Dst Addr Pan ID = 0, m_addrShortDstAddr = 80:05, Src Addr Pan ID = 0, m_addrShortSrcAddr = 00:05) ns3::SixLowPanIphc (Compression kind: 31497) ns3::Icmpv6NS (( type = 135 (NS) code = 0 target = 2001:2::ff:fe00:5 checksum = 36184)) ns3::Icmpv6OptionLinkLayerAddress (( type = 1 length = 1 L2 Address = 00-06-02:00:00:00:00:05)) ns3::LrWpanMacTrailer ( FCS = 0)
- 0.014536 /NodeList/7/DeviceList/0/$ns3::LrWpanNetDevice/Mac/MacTxDequeue ns3::LrWpanMacHeader (  Frame Type = 1, Sec Enable = 0, Frame Pending = 0, Ack Request = 0, PAN ID Compress = 0, Frame Vers = 1, Dst Addrs Mode = 2, Src Addr Mode = 2, Sequence Num = 164, Dst Addr Pan ID = 0, m_addrShortDstAddr = 80:08, Src Addr Pan ID = 0, m_addrShortSrcAddr = 00:08) ns3::SixLowPanIphc (Compression kind: 31497) ns3::Icmpv6NS (( type = 135 (NS) code = 0 target = fe80::ff:fe00:8 checksum = 1658)) ns3::Icmpv6OptionLinkLayerAddress (( type = 1 length = 1 L2 Address = 00-06-02:00:00:00:00:08)) ns3::LrWpanMacTrailer ( FCS = 0)